798
THF_e_NAP t= 828.40002 step= 828400
C         17.39000        6.48000       10.60000
C         18.46000        7.42000       10.74000
C         18.67000        8.07000       12.05000
C         19.90000        8.80000       12.38000
C         20.04000        9.31000       13.73000
H         17.31000        5.78000        9.70000
H         19.10000        7.57000        9.87000
H         20.60000        9.03000       11.62000
H         20.87000        9.94000       14.11000
C         18.94000        9.14000       14.62000
C         17.75000        8.49000       14.24000
C         17.60000        7.88000       13.03000
C         16.49000        7.02000       12.78000
C         16.43000        6.29000       11.62000
H         19.05000        9.53000       15.65000
H         17.00000        8.38000       14.97000
H         15.91000        6.77000       13.64000
H         15.63000        5.65000       11.44000
O         11.41000        2.07000        0.28000
C         12.68000        2.60000        0.66000
C         13.47000        2.49000       -0.69000
C         12.35000        2.66000       -1.70000
C         11.14000        1.98000       -1.13000
H         13.05000        1.94000        1.48000
H         12.53000        3.58000        1.04000
H         13.96000        1.54000       -0.60000
H         14.21000        3.30000       -0.70000
H         12.81000        2.29000       -2.56000
H         12.21000        3.73000       -1.80000
H         11.08000        0.93000       -1.42000
H         10.17000        2.48000       -1.25000
O          0.31000       14.78000        3.72000
C         -0.83000       14.54000        4.46000
C         -0.29000       13.82000        5.72000
C          1.15000       14.36000        5.89000
C          1.55000       14.39000        4.42000
H         -1.50000       13.98000        3.86000
H         -1.32000       15.48000        4.73000
H         -0.29000       12.73000        5.68000
H         -0.97000       13.85000        6.55000
H          1.72000       13.68000        6.60000
H          1.23000       15.38000        6.45000
H          1.84000       13.40000        4.08000
H          2.29000       15.12000        4.13000
O          1.28000       16.07000       12.64000
C          1.65000       14.97000       11.79000
C          2.56000       15.56000       10.76000
C          3.26000       16.74000       11.47000
C          1.91000       17.25000       12.15000
H          0.83000       14.54000       11.27000
H          2.19000       14.22000       12.38000
H          1.97000       15.87000        9.86000
H          3.25000       14.80000       10.36000
H          3.69000       17.42000       10.78000
H          4.03000       16.38000       12.18000
H          1.27000       17.78000       11.48000
H          1.99000       17.93000       13.00000
O         11.53000       18.59000       14.12000
C         11.11000       18.82000       15.47000
C         11.10000       20.37000       15.54000
C         10.31000       20.67000       14.20000
C         10.97000       19.60000       13.27000
H         11.85000       18.30000       16.13000
H         10.10000       18.57000       15.73000
H         12.10000       20.79000       15.57000
H         10.51000       20.65000       16.43000
H         10.63000       21.63000       13.83000
H          9.23000       20.65000       14.37000
H         11.74000       20.01000       12.64000
H         10.20000       19.22000       12.63000
O         17.46000        6.22000       19.45000
C         18.66000        7.04000       19.63000
C         18.64000        8.10000       18.59000
C         17.16000        8.29000       18.25000
C         16.72000        6.82000       18.37000
H         19.51000        6.36000       19.47000
H         18.54000        7.49000       20.66000
H         19.13000        7.77000       17.67000
H         19.15000        8.96000       18.82000
H         17.06000        8.72000       17.29000
H         16.68000        9.02000       18.92000
H         16.90000        6.32000       17.42000
H         15.61000        6.67000       18.51000
O          9.10000        1.36000        7.98000
C          8.14000        0.87000        8.84000
C          7.21000       -0.03000        8.03000
C          8.24000       -0.61000        7.09000
C          9.22000        0.55000        6.77000
H          7.66000        1.69000        9.30000
H          8.68000        0.22000        9.58000
H          6.51000        0.63000        7.49000
H          6.72000       -0.87000        8.55000
H          7.72000       -0.94000        6.24000
H          8.80000       -1.52000        7.55000
H          8.95000        1.13000        5.89000
H         10.18000        0.16000        6.64000
O         13.46000       10.98000       15.89000
C         13.14000       11.60000       14.67000
C         14.47000       12.32000       14.29000
C         15.50000       11.31000       14.88000
C         14.88000       10.84000       16.13000
H         12.33000       12.27000       14.89000
H         12.75000       10.88000       13.92000
H         14.70000       13.33000       14.69000
H         14.67000       12.42000       13.23000
H         16.49000       11.87000       14.96000
H         15.76000       10.44000       14.18000
H         15.13000       11.49000       16.98000
H         15.13000        9.77000       16.29000
O          4.67000        3.78000       18.91000
C          3.93000        3.18000       17.91000
C          4.18000        1.65000       18.04000
C          4.24000        1.48000       19.49000
C          4.78000        2.88000       19.97000
H          4.30000        3.63000       16.91000
H          2.90000        3.40000       18.07000
H          5.19000        1.34000       17.61000
H          3.42000        1.11000       17.56000
H          4.82000        0.59000       19.69000
H          3.35000        1.13000       20.01000
H          5.85000        2.96000       20.33000
H          4.16000        3.30000       20.76000
O         18.39000       18.91000       11.59000
C         19.05000       20.10000       11.03000
C         19.26000       20.97000       12.37000
C         19.49000       19.90000       13.45000
C         18.38000       18.89000       13.03000
H         18.51000       20.64000       10.21000
H         20.06000       19.77000       10.54000
H         18.40000       21.45000       12.65000
H         20.15000       21.60000       12.32000
H         19.38000       20.18000       14.53000
H         20.42000       19.40000       13.17000
H         17.39000       19.23000       13.42000
H         18.55000       17.82000       13.31000
O          7.44000       12.26000        2.53000
C          8.09000       11.13000        3.14000
C          9.54000       11.19000        2.50000
C          9.74000       12.73000        2.43000
C          8.37000       13.16000        2.00000
H          7.54000       10.21000        2.93000
H          8.16000       11.24000        4.21000
H          9.46000       10.85000        1.45000
H         10.26000       10.56000        3.02000
H         10.49000       12.91000        1.68000
H          9.98000       13.19000        3.39000
H          8.29000       13.21000        0.92000
H          8.14000       14.11000        2.40000
O         12.09000       14.45000        7.90000
C         11.38000       13.23000        7.96000
C         12.19000       12.24000        8.78000
C         12.95000       13.26000        9.66000
C         13.24000       14.46000        8.75000
H         11.27000       12.86000        6.99000
H         10.40000       13.45000        8.33000
H         12.87000       11.63000        8.24000
H         11.54000       11.70000        9.51000
H         13.78000       12.87000       10.26000
H         12.26000       13.65000       10.47000
H         14.16000       14.19000        8.19000
H         13.27000       15.44000        9.26000
O         10.52000        9.18000        5.24000
C          9.84000        8.31000        4.37000
C          9.87000        6.95000        4.97000
C         10.03000        7.10000        6.46000
C         10.89000        8.34000        6.43000
H         10.40000        8.33000        3.46000
H          8.81000        8.77000        4.21000
H         10.73000        6.38000        4.68000
H          9.02000        6.34000        4.60000
H         10.43000        6.18000        6.90000
H          9.08000        7.32000        6.89000
H         11.96000        8.01000        6.28000
H         10.79000        8.93000        7.36000
O         14.10000       15.53000       11.57000
C         14.87000       16.72000       11.83000
C         14.28000       17.40000       13.04000
C         13.74000       16.19000       13.81000
C         13.10000       15.40000       12.59000
H         14.74000       17.42000       11.03000
H         15.96000       16.58000       12.07000
H         13.44000       18.04000       12.75000
H         15.03000       18.01000       13.57000
H         13.11000       16.40000       14.63000
H         14.53000       15.54000       14.22000
H         12.23000       16.00000       12.27000
H         12.90000       14.32000       12.72000
O         18.29000       12.10000        0.15000
C         18.54000       13.15000        1.08000
C         18.11000       14.43000        0.40000
C         16.88000       14.00000       -0.32000
C         17.26000       12.56000       -0.73000
H         19.59000       13.22000        1.48000
H         17.93000       12.92000        1.94000
H         18.74000       14.94000       -0.37000
H         17.88000       15.16000        1.18000
H         16.65000       14.66000       -1.15000
H         16.03000       13.92000        0.44000
H         17.66000       12.49000       -1.81000
H         16.39000       11.89000       -0.61000
O         18.04000        1.93000        2.24000
C         17.62000        2.55000        1.01000
C         16.43000        3.46000        1.20000
C         16.69000        3.90000        2.64000
C         17.30000        2.61000        3.27000
H         17.40000        1.77000        0.31000
H         18.49000        3.10000        0.60000
H         15.47000        2.88000        1.10000
H         16.41000        4.21000        0.44000
H         15.89000        4.23000        3.25000
H         17.40000        4.70000        2.63000
H         16.46000        1.95000        3.62000
H         17.86000        2.86000        4.17000
O          3.16000       10.97000        9.58000
C          2.50000       10.13000        8.58000
C          0.97000        9.85000        9.04000
C          0.78000       11.07000        9.94000
C          2.16000       11.24000       10.56000
H          3.07000        9.21000        8.35000
H          2.50000       10.63000        7.63000
H          0.98000        8.84000        9.54000
H          0.30000        9.78000        8.16000
H         -0.01000       11.00000       10.74000
H          0.38000       11.87000        9.28000
H          2.30000       10.48000       11.38000
H          2.46000       12.17000       11.08000
O          2.65000        5.32000       15.07000
C          3.15000        6.29000       16.01000
C          1.93000        7.19000       16.30000
C          0.75000        6.28000       16.02000
C          1.24000        5.50000       14.83000
H          4.00000        6.87000       15.64000
H          3.38000        5.73000       16.95000
H          2.03000        8.00000       15.55000
H          1.89000        7.57000       17.42000
H         -0.18000        6.78000       15.75000
H          0.48000        5.69000       16.87000
H          1.04000        6.06000       13.93000
H          0.71000        4.53000       14.75000
O          8.97000       17.65000        0.34000
C          8.00000       17.25000       -0.61000
C          7.04000       18.41000       -0.72000
C          7.96000       19.64000       -0.52000
C          8.92000       19.05000        0.59000
H          7.50000       16.31000       -0.36000
H          8.57000       17.15000       -1.59000
H          6.23000       18.43000        0.05000
H          6.57000       18.49000       -1.72000
H          7.32000       20.54000       -0.39000
H          8.53000       19.83000       -1.46000
H          8.50000       19.16000        1.58000
H          9.92000       19.50000        0.53000
O          2.58000        0.22000        8.47000
C          3.49000        0.59000        7.41000
C          3.81000       -0.75000        6.63000
C          2.49000       -1.55000        6.80000
C          2.06000       -1.10000        8.22000
H          4.31000        1.08000        7.79000
H          2.98000        1.30000        6.67000
H          4.62000       -1.28000        7.17000
H          3.99000       -0.62000        5.61000
H          2.50000       -2.63000        6.67000
H          1.83000       -1.26000        6.03000
H          2.52000       -1.62000        9.08000
H          0.95000       -1.18000        8.44000
O          8.84000        4.37000       14.64000
C          9.23000        4.16000       15.95000
C          7.90000        3.69000       16.73000
C          7.26000        2.87000       15.59000
C          7.69000        3.59000       14.32000
H          9.68000        5.09000       16.28000
H         10.01000        3.29000       15.84000
H          7.18000        4.47000       17.08000
H          8.21000        3.16000       17.65000
H          6.15000        2.78000       15.72000
H          7.62000        1.83000       15.53000
H          7.03000        4.29000       13.88000
H          8.04000        2.89000       13.57000
O         17.06000       14.84000       14.38000
C         17.06000       14.66000       15.78000
C         18.58000       14.37000       16.14000
C         19.34000       15.01000       14.95000
C         18.36000       14.60000       13.83000
H         16.48000       13.80000       15.90000
H         16.62000       15.52000       16.36000
H         18.79000       13.30000       16.28000
H         18.80000       14.88000       17.16000
H         20.38000       14.75000       14.82000
H         19.26000       16.10000       14.98000
H         18.50000       13.53000       13.52000
H         18.49000       15.20000       12.90000
O          0.19000        9.44000        5.05000
C          0.48000        8.19000        4.38000
C         -0.08000        8.37000        2.98000
C          0.34000        9.79000        2.74000
C          0.16000       10.47000        4.09000
H         -0.06000        7.43000        4.96000
H          1.56000        7.97000        4.39000
H         -1.17000        8.23000        3.09000
H          0.33000        7.61000        2.21000
H         -0.24000       10.32000        1.91000
H          1.37000        9.82000        2.36000
H         -0.76000       11.07000        4.15000
H          1.00000       11.11000        4.33000
O          4.46000        8.08000       12.04000
C          5.02000        7.49000       10.82000
C          4.24000        6.22000       10.52000
C          2.91000        6.49000       11.20000
C          3.29000        7.31000       12.40000
H          6.10000        7.23000       10.97000
H          4.80000        8.21000        9.96000
H          4.69000        5.29000       10.94000
H          4.23000        6.04000        9.40000
H          2.45000        5.58000       11.57000
H          2.13000        6.91000       10.48000
H          3.46000        6.75000       13.33000
H          2.49000        8.01000       12.65000
O          1.88000       13.36000       17.05000
C          1.39000       13.07000       18.36000
C          0.84000       11.63000       18.39000
C          1.79000       11.04000       17.40000
C          2.10000       12.09000       16.39000
H          0.74000       13.83000       18.72000
H          2.19000       12.90000       19.08000
H         -0.16000       11.57000       18.05000
H          0.88000       11.13000       19.33000
H          1.47000       10.07000       16.98000
H          2.64000       10.75000       17.97000
H          1.32000       11.94000       15.63000
H          3.11000       11.97000       15.96000
O          5.71000       12.04000       15.00000
C          5.15000       13.05000       14.15000
C          4.95000       12.44000       12.79000
C          4.40000       11.03000       13.25000
C          5.24000       10.74000       14.47000
H          5.76000       13.93000       14.30000
H          4.19000       13.44000       14.52000
H          5.89000       12.43000       12.18000
H          4.29000       13.07000       12.23000
H          4.54000       10.33000       12.45000
H          3.33000       11.02000       13.54000
H          6.12000       10.13000       14.09000
H          4.77000       10.28000       15.32000
O         16.12000       17.28000       17.97000
C         17.03000       18.22000       18.60000
C         16.62000       19.53000       17.88000
C         15.12000       19.26000       17.56000
C         15.20000       17.81000       17.05000
H         18.04000       17.90000       18.41000
H         16.89000       18.28000       19.71000
H         17.26000       19.44000       17.02000
H         16.78000       20.38000       18.50000
H         14.57000       19.90000       16.81000
H         14.68000       19.28000       18.54000
H         15.58000       17.77000       16.02000
H         14.27000       17.23000       17.13000
O         16.78000        0.45000        5.54000
C         17.46000        1.08000        6.68000
C         18.58000        0.08000        7.07000
C         18.97000       -0.38000        5.68000
C         17.70000       -0.45000        4.88000
H         16.71000        1.31000        7.47000
H         18.06000        1.98000        6.41000
H         18.11000       -0.67000        7.69000
H         19.43000        0.52000        7.62000
H         19.41000       -1.45000        5.69000
H         19.76000        0.22000        5.33000
H         17.23000       -1.48000        4.87000
H         17.83000       -0.22000        3.79000
O          8.35000       14.43000       13.32000
C          8.79000       13.04000       13.38000
C         10.35000       13.21000       13.23000
C         10.42000       14.24000       14.40000
C          9.21000       15.15000       14.12000
H          8.33000       12.47000       12.55000
H          8.54000       12.64000       14.40000
H         10.69000       13.56000       12.25000
H         10.92000       12.25000       13.37000
H         11.29000       14.86000       14.38000
H         10.45000       13.66000       15.29000
H          9.51000       16.05000       13.53000
H          8.72000       15.43000       15.00000
O         11.31000        7.63000       10.95000
C         12.00000        8.79000       11.52000
C         13.48000        8.63000       11.28000
C         13.45000        8.02000        9.91000
C         12.26000        7.00000        9.99000
H         11.85000        8.90000       12.60000
H         11.54000        9.71000       11.10000
H         13.77000        7.83000       11.93000
H         14.22000        9.38000       11.43000
H         14.35000        7.42000        9.70000
H         13.18000        8.75000        9.09000
H         12.50000        5.91000       10.30000
H         11.65000        6.82000        9.04000
O         14.34000        0.80000       12.22000
C         15.54000        0.99000       11.43000
C         16.02000        2.46000       11.68000
C         15.63000        2.64000       13.09000
C         14.39000        1.80000       13.29000
H         15.32000        0.74000       10.33000
H         16.33000        0.43000       11.81000
H         15.55000        3.21000       11.00000
H         17.11000        2.48000       11.49000
H         15.58000        3.67000       13.30000
H         16.40000        2.25000       13.76000
H         13.44000        2.43000       13.24000
H         14.38000        1.22000       14.23000
O          6.63000        2.93000        5.90000
C          7.52000        3.91000        6.42000
C          6.91000        5.29000        6.42000
C          5.47000        4.93000        6.76000
C          5.36000        3.61000        5.99000
H          8.47000        3.87000        5.95000
H          7.66000        3.64000        7.46000
H          6.81000        5.75000        5.46000
H          7.33000        6.05000        7.03000
H          4.70000        5.65000        6.48000
H          5.30000        4.73000        7.85000
H          4.95000        3.81000        5.01000
H          4.67000        2.83000        6.30000
O          6.25000       18.73000        4.10000
C          6.28000       20.12000        4.17000
C          5.66000       20.54000        2.86000
C          4.51000       19.49000        2.67000
C          5.27000       18.26000        3.20000
H          7.27000       20.56000        4.20000
H          5.76000       20.54000        5.01000
H          6.45000       20.46000        2.09000
H          5.42000       21.60000        2.92000
H          4.23000       19.42000        1.61000
H          3.61000       19.70000        3.20000
H          5.71000       17.63000        2.34000
H          4.65000       17.55000        3.81000
O          9.26000       10.92000        8.91000
C          8.69000       11.21000        7.62000
C          7.78000       10.04000        7.26000
C          7.43000        9.52000        8.67000
C          8.75000        9.67000        9.47000
H          9.53000       11.24000        6.87000
H          8.12000       12.14000        7.63000
H          8.32000        9.28000        6.69000
H          6.91000       10.33000        6.68000
H          7.13000        8.47000        8.69000
H          6.60000       10.06000        9.12000
H          9.40000        8.92000        9.07000
H          8.65000        9.70000       10.57000
O          1.54000        3.50000        8.19000
C          0.71000        3.22000        9.29000
C          0.04000        4.57000        9.53000
C         -0.13000        5.15000        8.16000
C          1.22000        4.75000        7.55000
H          1.39000        2.97000       10.07000
H         -0.12000        2.47000        9.08000
H          0.68000        5.24000       10.04000
H         -0.89000        4.43000       10.10000
H         -0.35000        6.19000        8.09000
H         -0.95000        4.57000        7.74000
H          2.02000        5.51000        7.67000
H          1.17000        4.63000        6.51000
O         10.97000        9.94000       19.90000
C         10.28000        8.78000       19.50000
C          9.40000        9.34000       18.36000
C         10.35000       10.26000       17.66000
C         11.14000       10.86000       18.81000
H          9.71000        8.41000       20.38000
H         10.93000        7.97000       19.25000
H          8.64000       10.05000       18.77000
H          8.88000        8.61000       17.77000
H          9.89000       11.04000       17.01000
H         11.01000        9.66000       17.08000
H         10.62000       11.76000       19.10000
H         12.17000       11.13000       18.58000
O         16.23000       12.42000        9.64000
C         16.07000       11.14000        9.07000
C         16.99000       10.19000        9.75000
C         17.21000       10.88000       11.13000
C         17.24000       12.34000       10.67000
H         16.30000       11.15000        8.00000
H         15.00000       10.86000        9.15000
H         17.90000       10.11000        9.16000
H         16.63000        9.17000        9.96000
H         18.11000       10.63000       11.63000
H         16.33000       10.76000       11.70000
H         18.23000       12.58000       10.31000
H         16.87000       12.98000       11.47000
O          5.09000       14.89000       19.16000
C          5.45000       14.19000       17.98000
C          6.34000       13.00000       18.40000
C          5.70000       12.70000       19.77000
C          5.47000       14.12000       20.35000
H          5.94000       14.94000       17.36000
H          4.47000       13.85000       17.47000
H          7.43000       13.27000       18.52000
H          6.23000       12.17000       17.74000
H          6.20000       12.02000       20.43000
H          4.76000       12.19000       19.62000
H          6.40000       14.48000       20.59000
H          4.74000       14.28000       21.07000
O          7.72000       17.04000       10.96000
C          9.04000       16.90000       10.46000
C          9.25000       15.55000        9.73000
C          7.74000       15.35000        9.31000
C          6.94000       15.94000       10.45000
H          9.75000       17.15000       11.26000
H          9.03000       17.77000        9.78000
H          9.71000       14.71000       10.33000
H          9.89000       15.71000        8.87000
H          7.46000       14.34000        9.09000
H          7.67000       15.94000        8.38000
H          6.94000       15.28000       11.29000
H          5.90000       16.19000       10.22000
O         11.59000       15.93000       17.39000
C         11.91000       14.54000       17.62000
C         12.00000       14.49000       19.10000
C         11.09000       15.62000       19.61000
C         11.55000       16.69000       18.59000
H         12.80000       14.26000       17.05000
H         11.07000       13.86000       17.34000
H         13.03000       14.74000       19.44000
H         11.72000       13.51000       19.57000
H         11.19000       15.87000       20.64000
H         10.07000       15.32000       19.35000
H         12.50000       17.16000       18.80000
H         10.88000       17.57000       18.42000
O          1.68000       18.38000        2.23000
C          1.66000       17.29000        1.39000
C          0.16000       17.42000        0.96000
C         -0.27000       18.92000        1.24000
C          0.37000       18.91000        2.63000
H          1.95000       16.34000        1.85000
H          2.38000       17.52000        0.68000
H         -0.57000       16.81000        1.56000
H          0.03000       17.11000       -0.06000
H         -1.34000       19.25000        1.18000
H          0.29000       19.63000        0.60000
H         -0.15000       18.26000        3.31000
H          0.42000       19.91000        3.09000
O         14.62000        6.78000        6.13000
C         15.34000        7.97000        5.92000
C         16.79000        7.68000        6.22000
C         16.89000        6.23000        5.87000
C         15.53000        5.67000        6.27000
H         14.96000        8.73000        6.65000
H         15.28000        8.27000        4.86000
H         16.89000        7.87000        7.30000
H         17.47000        8.33000        5.71000
H         17.69000        5.69000        6.34000
H         16.98000        6.10000        4.76000
H         15.61000        5.36000        7.33000
H         15.13000        4.80000        5.76000
O         14.13000        2.69000        6.70000
C         13.09000        3.40000        7.35000
C         12.10000        3.87000        6.30000
C         12.26000        2.69000        5.27000
C         13.76000        2.42000        5.40000
H         13.63000        4.19000        7.92000
H         12.50000        2.76000        8.05000
H         12.33000        4.88000        6.01000
H         11.12000        3.87000        6.79000
H         12.06000        3.02000        4.18000
H         11.64000        1.88000        5.62000
H         14.28000        2.95000        4.68000
H         14.12000        1.36000        5.30000
O         12.54000        5.46000       15.43000
C         12.79000        6.20000       14.28000
C         13.30000        7.58000       14.83000
C         13.96000        7.20000       16.09000
C         13.08000        6.13000       16.59000
H         11.88000        6.07000       13.63000
H         13.57000        5.79000       13.63000
H         12.44000        8.27000       15.05000
H         13.94000        8.22000       14.12000
H         13.99000        7.96000       16.86000
H         14.96000        6.92000       15.83000
H         12.28000        6.43000       17.31000
H         13.58000        5.31000       17.14000
O          2.11000       18.78000       17.13000
C          3.36000       18.06000       17.05000
C          3.07000       16.59000       17.36000
C          1.66000       16.52000       16.75000
C          1.04000       17.84000       17.03000
H          4.06000       18.42000       17.79000
H          3.75000       18.21000       16.06000
H          3.14000       16.44000       18.47000
H          3.74000       15.95000       16.76000
H          1.11000       15.61000       17.09000
H          1.86000       16.43000       15.65000
H          0.48000       17.87000       17.98000
H          0.36000       18.15000       16.16000
O          3.26000        4.51000        3.27000
C          2.58000        3.24000        3.33000
C          1.19000        3.40000        2.71000
C          1.57000        4.37000        1.63000
C          2.64000        5.22000        2.26000
H          2.51000        2.98000        4.33000
H          3.19000        2.44000        2.87000
H          0.41000        3.89000        3.25000
H          0.83000        2.50000        2.20000